 Gaussian 16, Revision C.01,
 Gaussian 16:  ES64L-G16RevC.01  3-Jul-2019

 -------------------
 #P RHF/6-31G scf=qc
 -------------------

 --
 HO
 --
 Symbolic Z-matrix:
 Charge = -1 Multiplicity = 1

                         Standard orientation:
 ---------------------------------------------------------------------
 Center     Atomic      Atomic             Coordinates (Angstroms)
 Number     Number       Type             X           Y           Z
 ---------------------------------------------------------------------
      1          8           0        0.000000    0.000000    0.333333
      2          1           0        0.000000    0.000000   -2.666667
 ---------------------------------------------------------------------

 SCF Done:  E(RHF) =  -75.1133070854     a.u. after   47 cycles

 The electronic state is 1-SG.
 Alpha  occ. eigenvalues --  -20.43342  -0.98913  -0.30901  -0.30901  -0.00786
 Alpha virt. eigenvalues --    0.23250   1.33382   1.35408   1.35408   1.41690
 Alpha virt. eigenvalues --    1.52481

 Mulliken charges:
               1
     1  O   -0.266349
     2  H   -0.733651
 Sum of Mulliken charges =  -1.00000

 Dipole moment (field-independent basis, Debye):
    X=              0.0000    Y=              0.0000    Z=              8.7598  Tot=              8.7598
 Quadrupole moment (field-independent basis, Debye-Ang):
   XX=             -8.8860   YY=             -8.8860   ZZ=            -31.6365
   XY=              0.0000   XZ=              0.0000   YZ=              0.0000

 Normal termination of Gaussian 16 at Fri Feb 28 16:02:26 2025.
