 Gaussian 16, Revision C.01,
 Gaussian 16:  ES64L-G16RevC.01  3-Jul-2019

 -----------------------
 #P RHF/6-31G stable=opt
 -----------------------

 --
 HO
 --
 Symbolic Z-matrix:
 Charge = -1 Multiplicity = 1

                         Standard orientation:
 ---------------------------------------------------------------------
 Center     Atomic      Atomic             Coordinates (Angstroms)
 Number     Number       Type             X           Y           Z
 ---------------------------------------------------------------------
      1          8           0        0.000000    0.000000    0.333333
      2          1           0        0.000000    0.000000   -2.666667
 ---------------------------------------------------------------------

 SCF Done:  E(RHF) =  -75.0730023288     A.U. after   12 cycles
 SCF Done:  E(UHF) =  -75.1699659431     a.u. after    7 cycles
 SCF Done:  E(UHF) =  -75.2152926927     a.u. after   22 cycles

 Unable to determine electronic state:  an orbital has unidentified symmetry.
 Alpha  occ. eigenvalues --  -20.11986  -0.81131  -0.14046  -0.06021  -0.05219
 Alpha virt. eigenvalues --    0.27740   1.28052   1.51365   1.57423   1.59823
 Alpha virt. eigenvalues --    1.66461
  Beta  occ. eigenvalues --  -20.08701  -0.65555  -0.31398  -0.01659  -0.01573
  Beta virt. eigenvalues --    0.57889   1.09672   1.59946   1.61581   1.70862
  Beta virt. eigenvalues --    1.71419

 Mulliken charges and spin densities:
               1          2
     1  O   -0.980739   0.983502
     2  H   -0.019261  -0.983502
 Sum of Mulliken charges =  -1.00000  -0.00000

 Dipole moment (field-independent basis, Debye):
    X=              0.0000    Y=              0.0000    Z=             -1.3443  Tot=              1.3443
 Quadrupole moment (field-independent basis, Debye-Ang):
   XX=             -8.4432   YY=             -7.1405   ZZ=             -9.4966
   XY=              0.0000   XZ=              0.0000   YZ=              0.0000

 Normal termination of Gaussian 16 at Fri Feb 28 17:04:38 2025.
