                         Program Version 5.0.4 -  RELEASE  -
|  1> #
|  2> # HO
|  3> #
|  4>
|  5> ! HF 6-31G
|  6>
|  7> %scf
|  8>    HFTyp RHF
|  9>    guess PAtom
| 10> end
| 11>
| 12>
| 13> * xyz -1 1
| 14> O 0.00000000 0.00000000 0.00000000
| 15> H 0.00000000 0.00000000 3.00000000
| 16> *
| 17>
| 18>                          ****END OF INPUT****

CARTESIAN COORDINATES (ANGSTROEM)
---------------------------------
  O      0.000000    0.000000    0.000000
  H      0.000000    0.000000    3.000000

 Total Charge           Charge          ....   -1
 Multiplicity           Mult            ....    1
 Number of Electrons    NEL             ....   10
 Basis Dimension        Dim             ....   11

ORBITAL ENERGIES
----------------

  NO   OCC          E(Eh)            E(eV)
   0   2.0000     -20.433489      -556.0235
   1   2.0000      -0.989115       -26.9152
   2   2.0000      -0.308980        -8.4078
   3   2.0000      -0.308980        -8.4078
   4   2.0000      -0.007881        -0.2145
   5   0.0000       0.232474         6.3259
   6   0.0000       1.333786        36.2942
   7   0.0000       1.354109        36.8472
   8   0.0000       1.354109        36.8472
   9   0.0000       1.416918        38.5563

MULLIKEN ATOMIC CHARGES
-----------------------
   0 O :   -0.266395
   1 H :   -0.733605
Sum of atomic charges:   -1.0000000

LOEWDIN ATOMIC CHARGES
----------------------
   0 O :   -0.270513
   1 H :   -0.729487

  Mayer bond orders larger than 0.100000
B(  0-O ,  1-H ) :   0.4618

FINAL SINGLE POINT ENERGY       -75.113307023337

DIPOLE MOMENT
-------------
                                X             Y             Z
Electronic contribution:      0.00000      -0.00000      -6.38510
Nuclear contribution   :      0.00000       0.00000       2.64508
                        -----------------------------------------
Total Dipole Moment    :      0.00000      -0.00000      -3.74002
                        -----------------------------------------
Magnitude (a.u.)       :      3.74002
Magnitude (Debye)      :      9.50637

Rotational constants in cm-1:     0.000000     1.975280     1.975280
Rotational constants in MHz :     0.000000 59217.413687 59217.413687

                             ****ORCA TERMINATED NORMALLY****
TOTAL RUN TIME: 0 days 0 hours 0 minutes 0 seconds 573 msec
